<?xml version='1.0' encoding='UTF-8'?>
<VTKFile type="ImageData"><ImageData Origin="0 0 0" Spacing="0.05 0.05 0.05" WholeExtent="0 20 0 20 0 20"><Piece Extent="0 20 0 20 0 20"><CellData Scalars="pressure" Vectors="velocity"><DataArray Name="pressure" format="ascii" type="Float64">-0.006210105603830288 -0.006321574494573534 -0.006454147376235595 -0.006498132786296713 -0.006377035114117805 -0.0060453104127092365 -0.005482034950099775 -0.004687132285755851 -0.0036807205223713235 -0.0025043610538360993 -0.0012214635646054625 8.448752346774892e-05 0.001316248157070773 0.0023746293940808847 0.003175475768962947 0.003669596530388576 0.0038587016736332793 0.0038052137906149862 0.0036303608997097065 0.0034935733218807658 -0.006224661770664956 -0.0064200955020490705 -0.0066322481416466956 -0.006728998599032143 -0.006635026992541978 -0.006310871117432535 -0.00574079397464351 -0.0049279262431468195 -0.0038941550474731663 -0.002681900667693168 -0.001355874730748153 -1.8462317888626615e-06 0.0012790714726556433 0.002382006552501392 0.003215782945113139 0.0037264320763107307 0.00391331732466878 0.003841517288269354 0.0036407563021266407 0.0034822521317006165 -0.006122680580225792 -0.006408627552661734 -0.006721385525205267 -0.006892563745838994 -0.006838582319473684 -0.0065225521108690215 -0.0059336124543880485 -0.00507909805975824 -0.003984162460435978 -0.002694605006285667 -0.001279687072031873 0.0001678606234907547 0.0015368656462931083 0.002707444663104106 0.0035780662292102766 0.004086111510296763 0.004229342224745904 0.004081691093588225 0.0037933084560587025 0.0035672883935564995 -0.005877171523091538 -0.00623601854866736 -0.006637021915547575 -0.0068770047031819605 -0.006859942614676647 -0.006547834645140817 -0.0059326148093803745 -0.005025044744780775 -0.003853749710988068 -0.0024688151616298025 -0.0009458283206947131 0.0006128493717402786 0.0020784791127614853 0.0033161709158975403 0.004211474346454958 0.004692008848036487 0.004756373398412615 0.00449345926665063 0.004083628044493029 0.003775737315264528 -0.0055127737126372265 -0.005924059827479195 -0.006392500498673156 -0.006686923409598088 -0.006698370041900315 -0.006385396913935484 -0.0057406259922287055 -0.004776886491764427 -0.0035256439435235446 -0.002041225478348689 -0.00040613291483054467 0.0012642277662850763 0.002820130483320357 0.004115744628153895 0.005020662555105545 0.0054537239850152115 0.005417252226783265 0.0050197707791744895 0.004477522645717833 0.004090010678812123 -0.005081214587190881 -0.005528168690144195 -0.006044575118359493 -0.006378701016274428 -0.006410030684923114 -0.006092683785325415 -0.005418468827015057 -0.004401015459484069 -0.003073731726008706 -0.0014945691984641475 0.0002475616890742918 0.002015431058094517 0.003651277583207558 0.004992739483937961 0.005894819047504335 0.006269494285778313 0.00612512594745226 0.00559197658087434 0.004923003931769144 0.00446593761995716 -0.0046432988189703565 -0.005113655668337235 -0.005662606950551008 -0.00602416323814549 -0.006068406566416917 -0.005744992539921441 -0.005044140025499195 -0.003979381555796109 -0.0025852035131779666 -0.0009223750834520924 0.0009103397170170947 0.0027599101719511542 0.004461063386246564 0.005836030444993806 0.006727428539925587 0.007042461966903107 0.006796611035241379 0.006141133983551657 0.005362369863679566 0.004849176398701322 -0.0042570643304118755 -0.004742236714424225 -0.005312271342403611 -0.005691830377293272 -0.005743955055209962 -0.005414488918466128 -0.004691908071728836 -0.0035892013028015228 -0.0021412592458658645 -0.00041050244254594746 0.001489860093503496 0.003403201607509768 0.0051534503387823645 0.006550902021040773 0.00742881309824184 0.007691473282492097 0.007361181759559926 0.00660697463370453 0.005742194088757335 0.005187426416607447 -0.003970570054689198 -0.004464488148599896 -0.005047144178308519 -0.00543756560801833 -0.005494132251561372 -0.005159943980665752 -0.004422082955535052 -0.003292961847574912 -0.0018076048677520976 -2.9610485363426248e-05 0.0019162595143643836 0.00387264453936417 0.005655260844684507 0.007066104952626483 0.007932215438273028 0.008156339291434646 0.007766057311821084 0.006943185872118422 0.006019814031614424 0.005437861152515557 -0.003817571248047309 -0.004315670962940488 -0.00490436373770252 -0.005299985424261103 -0.005358584129038221 -0.005021854180736707 -0.004276122356157262 -0.0031334668851402303 -0.0016289529180415427 0.00017316959244490743 0.0021419832043336256 0.0041199637381211 0.00591856423052403 0.007335542637932763 0.008194851494915587 0.008398600381922887 0.007977254689664223 0.007119276973194291 0.006166312001024443 0.00557099065874961 -0.0038151511394911666 -0.004313373064536159 -0.004902195986112641 -0.005297915428738483 -0.0053565624193864115 -0.005019834052791603 -0.004274057585851413 -0.003131312254268028 -0.001626673270284976 0.0001756101560958096 0.0021445493322000135 0.004122630763479303 0.005921265839386908 0.007338179195557519 0.00819730929245416 0.008400791790409395 0.007979116040971491 0.007120793260759209 0.006167549864880995 0.005572093484538396 -0.003963502469001968 -0.004457766272168741 -0.005040791145064498 -0.005431496507677618 -0.0054882136227231435 -0.005154037755856741 -0.00441605480179354 -0.0032866899721760465 -0.001800977832731557 -2.252323380930778e-05 0.0019236958522996024 0.003880359359795381 0.005663063512877642 0.007073711936986883 0.00793931366947276 0.0081626543171102 0.007771409348938477 0.0069475474031482345 0.006023373063381435 0.005441029392800238 -0.004245970316988446 -0.004731706299544934 -0.0053023517463944275 -0.005682394335095999 -0.005734799689634785 -0.005405388001404879 -0.004682650676346883 -0.003579593121550822 -0.0021311185265808805 -0.00039967333483682447 0.0015012094185572382 0.003414954537779414 0.005165320229009609 0.006562469169669189 0.007439600601276599 0.007701065016718868 0.007369302898198753 0.006613593386831246 0.0057476052021101995 0.005192254021494228 -0.004629143671258441 -0.0051002578091388865 -0.0056500561968738285 -0.006012314379325311 -0.00605700371613343 -0.005733744298525124 -0.005032756518233828 -0.003967598898719858 -0.0025727977421655893 -0.000909162917497259 0.0009242036821547293 0.002774238712129808 0.004475508129123464 0.005850088100666943 0.006740528414728768 0.007054106000207579 0.006806465798909838 0.006149160190798665 0.005368940950481677 0.004855062965922988 -0.005065154994541916 -0.005513013246833849 -0.006030474943672448 -0.00636552503082489 -0.0063975000170953195 -0.006080449471608206 -0.005406175394399885 -0.004388348199134849 -0.0030604442249162972 -0.0014805037353322805 0.00026241726845937374 0.0020307145970821687 0.003666637986964186 0.005007657244188291 0.005908699205340448 0.006281816972776094 0.006135551514243008 0.005600468857027593 0.0049299703609237 0.004472230494850367 -0.005495946139214032 -0.005908220887171516 -0.006377878027214809 -0.0066734243719435175 -0.006685706600217059 -0.006373191581732843 -0.0057284849915625454 -0.004764464444706165 -0.0035126854048769286 -0.0020275808729362846 -0.0003917813895696661 0.0012789694046220661 0.002834899516801272 0.004130044575546692 0.005033932836532002 0.005465490411908974 0.005427212257184183 0.005027906174847487 0.00448425387807845 0.004096192960352034 -0.005860468077907891 -0.006220323696436893 -0.006622636101824952 -0.006863879511059411 -0.00684780936018005 -0.006536315963782381 -0.005921313618885162 -0.005013607447753254 -0.0038419203832157395 -0.0024564563602117984 -0.0009329485381808312 0.0006260766142335037 0.002091666308582275 0.0033288843681526957 0.004223231212475854 0.004702418699145324 0.004765200525289285 0.004500719914620109 0.004089748998866263 0.0037815232333128644 -0.00610658458530309 -0.006393496326787992 -0.006707584562925249 -0.006880093056402717 -0.006827210169324464 -0.006511926362001341 -0.005923349435424612 -0.005068854153445589 -0.003973691070870682 -0.0026837778875060865 -0.0012685080797996081 0.00017924379880263666 0.001548176475983242 0.00271828554996986 0.003588047884422551 0.004094929658055812 0.004236835230472482 0.004087924090868421 0.0037987226715380145 0.003572576059810384 -0.006209193930385818 -0.006405514927202664 -0.0066189576681038005 -0.006717044722742579 -0.006624222582630639 -0.006300893021484008 -0.005731272613490251 -0.004918538618816478 -0.003884669387940004 -0.0026721928086979657 -0.0013459425407976267 8.176171519748553e-06 0.0012889472840602295 0.0023914230079319664 0.003224412041914386 0.0037340333695178854 0.003919796784506392 0.003846996755426838 0.003645642499718605 0.003487157611589134 -0.006194869299147112 -0.006307171758713319 -0.006440972523798563 -0.006486260951361547 -0.0063662982668872 -0.006035396918827506 -0.005472592279843832 -0.004677846041680711 -0.0036713714259235114 -0.002494830051422502 -0.0012117536228529885 9.424549422369246e-05 0.001325824213263944 0.002383726510171948 0.003183787164426211 0.0036769188429270423 0.00386497918053226 0.0038105608320104243 0.0036351637054975188 0.0034983702614361915 -0.006083474357349544 -0.006159712640980098 -0.006241381077533174 -0.006247291297173465 -0.0061074537003368975 -0.005774932149204918 -0.005225373302799857 -0.004455220818784948 -0.003481589937146012 -0.0023432875508355372 -0.0011012593307240435 0.0001634279169697781 0.0013559185834176553 0.0023792416416661536 0.00315159831813028 0.0036251535066899455 0.003800724098945238 0.0037355093637704484 0.003540638718784534 0.0033678730100313637 -0.006052569532263109 -0.006219149003871659 -0.006359947742515635 -0.006397174416282093 -0.0062709482817256785 -0.005942649926787774 -0.005393061806935119 -0.004621172253214283 -0.0036448449812914938 -0.002502506123963456 -0.001254220672091155 1.9824615549329226e-05 0.0012251987056040243 0.002263737851488175 0.0030517178946729163 0.003541168459874054 0.0037322792259826846 0.003681359807738182 0.003494619007199982 0.0033033179094433744 -0.005867798069398746 -0.006125604081001301 -0.0063421469376575895 -0.00643032051357561 -0.006331431137365849 -0.006011323420031787 -0.005454852875643966 -0.00466365819195473 -0.0036571499525179098 -0.0024750509237428026 -0.001179450452788389 0.00014577184281349385 0.001400161928437799 0.002473274605405157 0.003277611636180774 0.003760398091316928 0.0039215649234477 0.0038220520702916647 0.003574554968499754 0.003312185913985271 -0.00554314209277062 -0.005883314307631625 -0.006173567167119242 -0.006315180175281612 -0.0062465586764290865 -0.00593486156907352 -0.00536715223380177 -0.004546882984692746 -0.0034949880917402518 -0.00225325275942904 -0.0008874253709909911 0.0005123240121066328 0.001827787889233227 0.0029411538511213463 0.0037551080969130467 0.004210666553759294 0.0043094778788314095 0.004123376291863302 0.003783065344882768 0.0034427454459587782 -0.005115605087989131 -0.005525575838805101 -0.005879771179391068 -0.006069342048085892 -0.006028449716613077 -0.005723527940058887 -0.005142137875880652 -0.004288448796583492 -0.003184454108502448 -0.0018740663533979487 -0.0004270696875121906 0.0010526005284344476 0.0024305924768021434 0.0035817615095428217 0.0043964273727988435 0.00480964053422534 0.004827280017382905 0.004537089676528042 0.004095311204509345 0.0036871674000243902 -0.00463769552716858 -0.005104439474568695 -0.005510628018851776 -0.005739812495865141 -0.005721934139293607 -0.0054216327033436455 -0.004825763317537244 -0.0039382830057675434 -0.0027816561265347635 -0.0014016180122359148 0.0001278941098273769 0.001679317915553902 0.003115892862286511 0.004298646020031525 0.005106316004596033 0.005469328970111025 0.005399843519954184 0.00500404042755011 0.0044662609710192395 0.004004735703071064 -0.004167406766228769 -0.004678530339306629 -0.005124894585915988 -0.005384873346998054 -0.005384808358799131 -0.005087203531923508 -0.004477572595973726 -0.0035590596800421613 -0.0023540010934507915 -0.000909034718319682 0.0006905253844577858 0.002304339672619779 0.0037904674446504667 0.004997069624886267 0.005792942922132733 0.006105456793510942 0.005953962033900844 0.005462833149875367 0.004842825217064633 0.004341927424523925 -0.003759701361722532 -0.004303554239312061 -0.0047791307273912075 -0.005061522129743303 -0.00507431872988567 -0.0047780470444196066 -0.004156767169742978 -0.003212592332286169 -0.0019673801288157804 -0.00046786534389839043 0.0011838473782316823 0.002847471361593974 0.0043716869497149756 0.005594602116606965 0.006377457683560585 0.006645943162818361 0.0064261914310900095 0.005858153455496481 0.005174305778525542 0.00464621880058015 -0.0034602157839167687 -0.004025762223160268 -0.004520484962326074 -0.004817550961135498 -0.004838702615841048 -0.004542997906532567 -0.003913326596467364 -0.0029509463106646545 -0.001677282558658737 -0.00013922752297763598 0.0015477236967162444 0.0032453400655436983 0.004794991440254286 0.0060277255482455135 0.006799746044061698 0.007035982511517901 0.006767778669065147 0.006146317194166821 0.005419288909495877 0.004874332505282335 -0.0033011465863660413 -0.0038778021883114156 -0.004382282034739813 -0.004686785985337721 -0.0047121497797295575 -0.004416681225733195 -0.003782666918177048 -0.002810898099532923 -0.0015225747987952013 3.530792099469045e-05 0.001740001765055052 0.003454725872073147 0.0050170138870087085 0.0062542934444169244 0.007020265398388768 0.007239604571489732 0.006946454214825487 0.006297839937064329 0.005549225672902806 0.0049963238362665564 -0.0032986324136492036 -0.003875546112139583 -0.004380230890502239 -0.004684883134456316 -0.004710344867446155 -0.004414928992814584 -0.0037809246576471713 -0.0028091309043671753 -0.0015207379436582558 3.7268977901702096e-05 0.0017420404897430747 0.003456831021520496 0.005019137519332871 0.006256361782083119 0.007022198651216308 0.007241340476653614 0.006947947793622388 0.006299092904705873 0.0055502919016791495 0.004997303504306155 -0.0034528613453611266 -0.004019105317426743 -0.0045143732627241145 -0.004811846574522755 -0.004833282572916271 -0.0045377397614916005 -0.003908122112249779 -0.002945680332557719 -0.0016718244367319112 -0.0001334323965690949 0.0015537273605927833 0.003251519834990975 0.0048012089840702085 0.006033769578878785 0.006805386419878239 0.0070410308918005 0.006772110317813978 0.006149944320925752 0.005422363313089977 0.004877141913930925 -0.00374818904862609 -0.004293125495149618 -0.004769562930583561 -0.005052613451740679 -0.005065880732862965 -0.004769895299752393 -0.004148721875166332 -0.0032044685091579183 -0.001958977144862747 -0.00045897602963575413 0.0011930384927445567 0.002856907539645707 0.0043811615101409405 0.005603804086710999 0.006386035453631448 0.006653612028443036 0.00643277020203339 0.005863663977194711 0.005178978984901135 0.0046504959762732785 -0.004152784035519965 -0.00466527773874408 -0.005112770163301072 -0.0053736432366599555 -0.005374237566526605 -0.005077046794407667 -0.004467586426192328 -0.003549003379673093 -0.0023436370698446092 -0.0008981274965775853 0.000701809553565284 0.0023158795357425127 0.00380201956680056 0.005008263898542644 0.005803367583102015 0.00611477699452083 0.005961959121588743 0.0054695335049275515 0.004848521557967857 0.004347169411858525 -0.004621201763601544 -0.005089463569964465 -0.005496973482480007 -0.00572725316576352 -0.0057102062279859155 -0.005410442008789624 -0.0048148142422860295 -0.003927306875687611 -0.002770411438175528 -0.0013899184895315708 0.00014011593961239078 0.0016917092451730913 0.003128228839843743 0.004310563210582674 0.0051173973177906056 0.005479232677932208 0.0054083461469910206 0.005011177643595743 0.004472364529077755 0.004010404318450066 -0.005098438103215241 -0.005509925550214617 -0.005865535857230785 -0.006056334722049441 -0.0060164050436021955 -0.00571213170537999 -0.005131074459300743 -0.004277430545311571 -0.003173248351453284 -0.0018625104796046838 -0.0004150846313769735 0.0010647153361398702 0.0024425961558548624 0.0035933083289754527 0.00440713534600091 0.004819208376155251 0.004835518621833885 0.004544045849942868 0.004101326451229947 0.003692853496924035 -0.005526230118245424 -0.005867781220534193 -0.0061594386361287865 -0.006302333226636456 -0.00623475736645028 -0.0059238061336801175 -0.0053565215657101475 -0.004536391370326986 -0.0034844167890834953 -0.002242465376144673 -0.0008763918840516299 0.0005234962196434136 0.0018387803560633478 0.002951670736503588 0.0037648272382351253 0.0042193512978019885 0.004316984834866246 0.004129770737459244 0.0037887099675391655 0.0034482089659069884 -0.005851644076979156 -0.006110603751956033 -0.006328470406597826 -0.006417924010183276 -0.006320121774072725 -0.006000821906842514 -0.00544485075313293 -0.004653882242705484 -0.003647394980807179 -0.002465199256854707 -0.0011694867615507747 0.00015575413088166428 0.0014099704188993744 0.0024825972066406764 0.0032861890645053153 0.0037680485219081118 0.00392819520647842 0.0038277809388754407 0.003579745579660063 0.0033173397366857565 -0.00603718896079808 -0.006204691852283287 -0.006346715990947129 -0.006385196945260422 -0.006260069835258084 -0.00593260554216055 -0.005383552814604163 -0.0046119343838020785 -0.003635687544191677 -0.0024933135323067087 -0.0012449817931306528 2.901472201822922e-05 0.0012341689122492528 0.002272233556688716 0.0030595029004052265 0.003548096183578897 0.0037383109896849138 0.0036866314256626034 0.003499474308814731 0.0033082399107407946 -0.006068385315690244 -0.006145428189451209 -0.006228278494515742 -0.00623544699295608 -0.006096712453915569 -0.005765015960194125 -0.005215967909533177 -0.004446060807013866 -0.003472471174192031 -0.002334087747953039 -0.0010919815518646906 0.00017267439230972764 0.0013649509674779228 0.0023878010401520056 0.003159437352046012 0.003632132262081316 0.0038067990393821863 0.003740798313861824 0.003545481691245621 0.0033727347041329877 -0.006058855435731518 -0.006133894732795187 -0.006194537401671923 -0.006184000411275226 -0.006042581331432589 -0.005725022184443794 -0.005203949505524366 -0.004470615154414146 -0.0035362047306160206 -0.0024338169313924364 -0.0012197111748619598 2.7927293170287677e-05 0.0012145715393864298 0.0022404411766514818 0.0030184871393017956 0.0034935982635864627 0.003658366459089203 0.0035627728876715366 0.003315892169300497 0.003081847339622107 -0.00598787969348353 -0.0062009728261184175 -0.006335733479513468 -0.006357630163671382 -0.006227139881689356 -0.005912003111845607 -0.0053919550797123525 -0.0046613614164088615 -0.0037319777148684817 -0.002635814261180322 -0.0014270544850735964 -0.00018139200610699019 0.0010089883996353048 0.0020441894316006065 0.002837018064700526 0.0033333204265288464 0.0035248815447166443 0.003457713942354068 0.0032260656434659573 0.0029486418876651394 -0.0056976714385220725 -0.0060404331343382614 -0.0062591557943649095 -0.006329423696381537 -0.006223405003999403 -0.00591788489478975 -0.005397969978410451 -0.004660348654974506 -0.0037171764363086637 -0.00260016248739998 -0.001363641745170168 -8.504918188979743e-05 0.001139116471966805 0.002196812034627599 0.002999304518055723 0.0034877094100933376 0.0036522674188135132 0.003539367304514421 0.00323963359123397 0.0028538027292265007 -0.005246004017729137 -0.005707041354070323 -0.0060087955333634445 -0.006132469218376342 -0.006057181782627325 -0.005765344090760615 -0.0052452549378933 -0.004494643464766606 -0.0035255894327347803 -0.002369875980070979 -0.00108335775778841 0.0002521401140771322 0.0015210441733170446 0.0026081227099495736 0.0034139825898165913 0.0038732379501790247 0.0039762008623730255 0.0037762483191096006 0.0033741111958401 0.0028777564505058644 -0.004695015447304502 -0.0052598209102853385 -0.005637691296394999 -0.00581334065205342 -0.005770040288753848 -0.005493274810049548 -0.004972601839444 -0.004205579309540493 -0.003203676617940693 -0.0019987841901176937 -0.0006484995502320647 0.0007500494723839952 0.002068902746496721 0.0031853856460270524 0.003987805768881459 0.004404170145246635 0.004427410460876101 0.004123675708003002 0.003613442021108201 0.0030259286189902035 -0.004109352984417757 -0.004761684883390147 -0.0052054198164618514 -0.005427728270127886 -0.005414318653541602 -0.005151990716458595 -0.004630176057962988 -0.0038453933468196324 -0.002808100924522867 -0.001550348150295148 -0.00013259587965327893 0.0013245775342841817 0.002692151476352334 0.0038341806809634245 0.004627382105174578 0.004994522037034798 0.0049334726339156885 0.004526394932643198 0.003917536219754069 0.00326184370802164 -0.00355192826598443 -0.004274735193128967 -0.004772298680737732 -0.005033652703929863 -0.005045886884345883 -0.004796037185519021 -0.0042726263929021594 -0.0034706591705827524 -0.0023992590539172716 -0.0010899308087832392 0.000385344244657185 0.001894620235402396 0.003304177237998871 0.004465773123079536 0.005246238510457396 0.005564840261004284 0.005425623280701459 0.00492707191815851 0.004236480070065376 0.0035329776621746477 -0.0030791209970479523 -0.003855042603711552 -0.004393539696652507 -0.004685051419633841 -0.004717397204268116 -0.004477334725413237 -0.003952219655292762 -0.003135518258147248 -0.0020350144901316513 -0.0006814562962903988 0.0008366141398595839 0.002387878320285543 0.003829893847920758 0.005004817229794032 0.005772043465471422 0.006048893282340417 0.005845463135054956 0.005274379205129045 0.004522084157260349 0.003787121373424902 -0.0027366063910209725 -0.0035482375775089383 -0.004114452551050742 -0.004426580976243077 -0.004472792525311568 -0.00423945734390509 -0.0037129644025188074 -0.002885587480839015 -0.0017641652927566902 -0.0003791410159591636 0.0011678592799311384 0.002747815985342155 0.004211490947022462 0.005394330699402914 0.006150831568040582 0.0063974146876301435 0.00614889785339997 0.005528154674987853 0.0047350417155978975 0.003981339872303684 -0.0025562124326708267 -0.0033863020210486063 -0.0039669805509945305 -0.004289872800937141 -0.004343301900070431 -0.004113461642991337 -0.003586248345999492 -0.00275333541622293 -0.001621079763049864 -0.00021979850235962693 0.001341707989982333 0.0029360869506480924 0.004410521526451794 0.005597029045826652 0.006347690704501613 0.006578606231844597 0.0063071457811263365 0.0056615019206912205 0.004848363323367829 0.004086107560153364 -0.0025534316632894166 -0.003383935298526485 -0.003964915767095864 -0.004288025938999357 -0.004341610201305332 -0.004111878024855678 -0.0035847395450313833 -0.002751854754443938 -0.0016195696499824478 -0.0002181963987206638 0.0013433588194795198 0.002937785630452049 0.004412233187100245 0.005598694172474289 0.006349250495295014 0.006580011390936778 0.006308359845546476 0.005662528747016562 0.004849237497222979 0.004086881159015278 -0.002728461146686806 -0.0035411921422093657 -0.004108182863220957 -0.004420891086420479 -0.00446754601172926 -0.0042345524726486936 -0.0037082996208526167 -0.0028810295099688833 -0.0017595544230890243 -0.00037430651801738434 0.0011728116772676863 0.0027528788698153663 0.004216564385804009 0.005399251007059059 0.0061554224454879744 0.0064015284820548995 0.0061524420493221784 0.005531139347128704 0.004737556199373106 0.003983558411314365 -0.003066430613776301 -0.003844034834091925 -0.004383731700350361 -0.004676152303024715 -0.004709210440352516 -0.00446969383865885 -0.003944960265962059 -0.00312843301930785 -0.0020278738797133416 -0.0006740164470130151 0.0008442128404947888 0.002395620124017178 0.003837636291455572 0.005012313847485483 0.0057790266432172594 0.006055150531184738 0.0058508534589372715 0.0052789140912148725 0.004525902727162125 0.0037904999740289488 -0.003535937662041438 -0.00426082719712889 -0.004759916498946096 -0.0050224486905013025 -0.005035612847646511 -0.0047864717842758375 -0.004263552681516346 -0.0034618321081249124 -0.002390407009345158 -0.0010807777574297006 0.00039467606112395843 0.0019040818037956613 0.0033136090763232185 0.004474892596347721 0.005254736500337733 0.0055724648697644446 0.0054321975851398295 0.004932607953730366 0.004241161690481453 0.0035371382926563735 -0.004091498958286904 -0.004746086775886191 -0.005191538623919915 -0.005415205305729568 -0.005402877541136334 -0.0051413719289094 -0.0046201371197885045 -0.0038356746632386574 -0.0027984418940830472 -0.001540517963949478 -0.0001224777236479844 0.0013347308178917226 0.002702213605188945 0.003843891752239729 0.004636434129306189 0.005002655918234367 0.0049405040084335786 0.004532349329183448 0.003922611487364531 0.003266393957949722 -0.004676663177846983 -0.005243651884458051 -0.0056232747060250225 -0.005800359805441267 -0.005758224712126212 -0.0054823623162833955 -0.004962332320919703 -0.004195698468295731 -0.003193947635040087 -0.0019890000765056585 -0.0006385086514280695 0.0007600177576912676 0.002078727263400757 0.0031948353586487804 0.003996607533934121 0.004412099749801457 0.004434301389546673 0.004129563082891569 0.0036185336481623642 0.0030305795549758247 -0.005228190748368378 -0.005691126054781672 -0.005994529957160482 -0.006119629835429899 -0.006045539502900835 -0.005754647469511159 -0.0052352481014400045 -0.004485083594811047 -0.003516264977925327 -0.0023606194463906232 -0.0010740758908834962 0.0002614399084050862 0.0015301329485192493 0.002616813384819172 0.0034220535725997024 0.0038805217211654356 0.003982572865441114 0.003781761203288763 0.0033789985865405607 0.002882341194381336 -0.005680939848603048 -0.006025186463743231 -0.006245377757975072 -0.006317011261776803 -0.006212184055818228 -0.005907623213891884 -0.00538842698746285 -0.004651296891650394 -0.0037084275660976716 -0.002591572988358113 -0.0013551324345286997 -7.662198108873732e-05 0.0011473380053473212 0.0022046198294668586 0.0030065288000572033 0.003494232739155119 0.0036580079398559878 0.0035444315822284332 0.0032442544063250984 0.002858281913040824 -0.005972194326586063 -0.006186365831700978 -0.006322422885470918 -0.006345632193828187 -0.006216330818131065 -0.005902165730752055 -0.005382848079709383 -0.00465276287512606 -0.003723695695693927 -0.0026277086358744836 -0.001419064358559068 -0.00017353322105884193 0.0010166272212631595 0.0020514257647589675 0.0028436942487991826 0.0033393472577858798 0.0035302248754946167 0.003462484292577179 0.0032305087597075703 0.0029530895769012324 -0.006043560938318473 -0.0061194371934717535 -0.006181331556470855 -0.006172144899176554 -0.006031958437572625 -0.005715384575258099 -0.00519503036318785 -0.004462151632702274 -0.0035279797831610977 -0.0024256924881099614 -0.0012116420039693634 3.591863387246495e-05 0.0012223659809328165 0.002247843059403466 0.0030253217886631466 0.0034997815506485797 0.0036638383802510706 0.0035676304993253203 0.00332038922619933 0.003086342580079595 -0.006327227931578928 -0.00641769816986703 -0.006484146441292567 -0.006483606808083678 -0.00636325570440712 -0.006078624371353256 -0.005598475029186417 -0.004907174132575338 -0.004007627002121117 -0.002924729939211285 -0.001708200533488799 -0.00043309164186519666 0.0008040305729247997 0.001894977374028194 0.0027386183421787796 0.003262611276072999 0.0034431911056831727 0.003321017777697139 0.0030104857810052304 0.0027034207812574604 -0.0062197588450693285 -0.006500452860253599 -0.006663572589822662 -0.006702138263399233 -0.006592198223094675 -0.006306917468650587 -0.005824438396292504 -0.005133270423583824 -0.004237174035308582 -0.0031597862060108793 -0.001948250871461161 -0.0006744223429817779 0.0005682625591573289 0.0016711290851258742 0.0025329718644913927 0.0030824146513735978 0.0032940760405127437 0.0032018782111211024 0.002897193891349801 0.002506169985460282 -0.005817770677040508 -0.006274718551206462 -0.006541629046341814 -0.006635174351972743 -0.006551828214809092 -0.006278332493482009 -0.005799985416088944 -0.005107803110488467 -0.004205260358573994 -0.003114547949153253 -0.0018816258155648804 -0.0005787957814725175 0.0006963653388079031 0.0018213597290122612 0.002693490251212561 0.0032343338107496578 0.003414021386004648 0.003262783423085652 0.002861795398637582 0.002308092414097438 -0.005217900961107591 -0.005836334365704109 -0.006205764158384178 -0.006361191310190413 -0.006314165419524406 -0.006061125576481321 -0.005591834503779797 -0.004897974685949442 -0.003981698829640017 -0.002863638086420709 -0.0015895780939072246 -0.00023485427871986362 0.0010816981764907158 0.002235941270109083 0.003111766742539953 0.003621254989189652 0.0037309765561136044 0.0034744254557548373 0.0029391503843616638 0.0022253207709401718 -0.004511182262722381 -0.005272709435786799 -0.005737825213300575 -0.0059558670437218015 -0.005949504107471719 -0.005721615504846289 -0.005264064795901835 -0.004567694264798909 -0.003632616393362307 -0.002477843814021734 -0.001149052463396371 0.00026220282275895657 0.001625883544787795 0.0028094975925548097 0.0036824171260826026 0.004147013755000918 0.0041690234801016616 0.0037917734505019613 0.0031207684483593964 0.00227667052406463 -0.003780878719010013 -0.004664211429618189 -0.005213955209413551 -0.005490507668285454 -0.005524520554016006 -0.005322787926363706 -0.004877541186386571 -0.004177838900713827 -0.003221496713354476 -0.0020262808148880738 -0.0006394530914624835 0.0008244497738215777 0.002233992537814559 0.0034428707545315056 0.0043071349247950945 0.004721318317905706 0.004653233845111371 0.004159967370681651 0.003369792598096784 0.0024291917127141766 -0.0031007683004012974 -0.004082827426559005 -0.0047031114544921 -0.005030352695733548 -0.005100725819680816 -0.004923142342831458 -0.00448916506911833 -0.0037856887039137673 -0.0028082175338251456 -0.0015731951355223287 -0.000136476375123186 0.001373218384879312 0.002821486247209219 0.004049130716247244 0.0049010643179875045 0.005266391688291548 0.005116901447876539 0.004524213151505201 0.003638796387768551 0.0026311593562375747 -0.0025330737339406394 -0.0035898562542553574 -0.00426463011173368 -0.00463209233224118 -0.0047320439721331145 -0.004574375394282787 -0.004149591618014668 -0.003442529831026954 -0.0024466975915867486 -0.0011773061023659763 0.0002952628957275945 0.0018415812329391032 0.00331911808564717 0.00455897551555513 0.005397924807298339 0.005721827169931375 0.005506935912995561 0.004837618197346049 0.0038826057663834466 0.0028312772822976684 -0.002126353035235308 -0.003233506987384205 -0.0